REMARK SMILES CC(=O)Oc1ccccc1C(=O)O
REMARK SMILES IDX 5 1 6 2 7 3 8 4 9 5 10 6 4 7 2 8 3 9 1 10 11 11 12 12 13 13
REMARK H PARENT 13 14
ROOT
ATOM      1  C   UNL     1       0.090   0.004   0.423  1.00  0.00    +0.145 A 
ATOM      2  C   UNL     1       0.024  -0.894   1.497  1.00  0.00    +0.048 A 
ATOM      3  C   UNL     1       1.185  -1.507   1.962  1.00  0.00    +0.004 A 
ATOM      4  C   UNL     1       2.410  -1.218   1.366  1.00  0.00    +0.001 A 
ATOM      5  C   UNL     1       2.477  -0.307   0.307  1.00  0.00    +0.019 A 
ATOM      6  C   UNL     1       1.317   0.325  -0.173  1.00  0.00    +0.102 A 
ENDROOT
BRANCH   1   7
ATOM      7  O   UNL     1      -1.118   0.588   0.034  1.00  0.00    -0.426 OA
BRANCH   7   8
ATOM      8  C   UNL     1      -1.685  -0.043  -1.067  1.00  0.00    +0.308 C 
ATOM      9  O   UNL     1      -1.258  -1.032  -1.648  1.00  0.00    -0.252 OA
ATOM     10  C   UNL     1      -2.945   0.679  -1.441  1.00  0.00    +0.139 C 
ENDBRANCH   7   8
ENDBRANCH   1   7
BRANCH   6  11
ATOM     11  C   UNL     1       1.500   1.296  -1.280  1.00  0.00    +0.339 C 
ATOM     12  O   UNL     1       2.549   1.499  -1.868  1.00  0.00    -0.246 OA
BRANCH  11  13
ATOM     13  O   UNL     1       0.403   2.004  -1.598  1.00  0.00    -0.478 OA
ATOM     14  H   UNL     1       0.717   2.588  -2.321  1.00  0.00    +0.297 HD
ENDBRANCH  11  13
ENDBRANCH   6  11
TORSDOF 4
