REMARK SMILES Cn1c(=O)c2c(ncn2C)n(C)c1=O
REMARK SMILES IDX 10 1 9 2 8 3 7 4 6 5 5 6 3 7 4 8 2 9 1 10 13 11 14 12 11 13
REMARK SMILES IDX 12 14
REMARK H PARENT
ROOT
ATOM      1  C   UNL     1      -2.621   2.105  -0.012  1.00  0.00    +0.151 C 
ATOM      2  N   UNL     1      -2.008   0.847  -0.354  1.00  0.00    -0.328 N 
ATOM      3  C   UNL     1      -2.618  -0.207  -0.982  1.00  0.00    +0.202 A 
ATOM      4  N   UNL     1      -1.788  -1.217  -1.153  1.00  0.00    -0.218 NA
ATOM      5  C   UNL     1      -0.614  -0.786  -0.614  1.00  0.00    +0.167 A 
ATOM      6  C   UNL     1      -0.716   0.476  -0.115  1.00  0.00    +0.152 A 
ATOM      7  C   UNL     1       0.367   1.160   0.502  1.00  0.00    +0.282 C 
ATOM      8  O   UNL     1       0.265   2.298   0.949  1.00  0.00    -0.267 OA
ATOM      9  N   UNL     1       1.538   0.397   0.539  1.00  0.00    -0.261 N 
ATOM     10  C   UNL     1       2.717   0.983   1.145  1.00  0.00    +0.159 C 
ATOM     11  C   UNL     1       1.683  -0.912   0.033  1.00  0.00    +0.332 C 
ATOM     12  O   UNL     1       2.762  -1.507   0.113  1.00  0.00    -0.247 OA
ATOM     13  N   UNL     1       0.560  -1.497  -0.555  1.00  0.00    -0.279 N 
ATOM     14  C   UNL     1       0.626  -2.841  -1.099  1.00  0.00    +0.157 C 
ENDROOT
TORSDOF 0
