REMARK SMILES C#Cc1cccc(Nc2ncnc3cc(OCCOC)c(OCCOC)cc23)c1
REMARK SMILES IDX 9 1 10 2 11 3 12 4 13 5 14 6 15 7 21 8 27 9 28 10 8 11 7 13
REMARK SMILES IDX 2 14 3 15 4 16 29 17 5 18 6 19 1 20 22 21 23 22 24 23 25 24
REMARK SMILES IDX 26 25 16 26 17 27 18 28 19 29 20 30
REMARK H PARENT 8 12
ROOT
ATOM      1  C   UNL     1      -0.152   0.563   1.662  1.00  0.00    +0.141 A 
ATOM      2  N   UNL     1      -0.832   1.507   2.337  1.00  0.00    -0.219 NA
ATOM      3  C   UNL     1      -2.046   1.819   1.881  1.00  0.00    +0.224 A 
ATOM      4  N   UNL     1      -2.651   1.282   0.817  1.00  0.00    -0.236 NA
ATOM      5  C   UNL     1      -1.967   0.356   0.141  1.00  0.00    +0.080 A 
ATOM      6  C   UNL     1      -2.564  -0.215  -0.976  1.00  0.00    +0.079 A 
ATOM      7  C   UNL     1      -1.919  -1.184  -1.750  1.00  0.00    +0.163 A 
ATOM      8  C   UNL     1      -0.621  -1.591  -1.400  1.00  0.00    +0.162 A 
ATOM      9  C   UNL     1      -0.012  -1.028  -0.277  1.00  0.00    +0.064 A 
ATOM     10  C   UNL     1      -0.682  -0.057   0.510  1.00  0.00    +0.047 A 
ENDROOT
BRANCH   1  11
ATOM     11  N   UNL     1       1.128   0.157   2.129  1.00  0.00    -0.340 N 
ATOM     12  H   UNL     1       1.116  -0.847   2.275  1.00  0.00    +0.168 HD
BRANCH  11  13
ATOM     13  C   UNL     1       1.965   0.801   3.070  1.00  0.00    +0.041 A 
ATOM     14  C   UNL     1       4.774  -0.152   5.356  1.00  0.00    -0.070 C 
ATOM     15  C   UNL     1       3.818   0.646   4.651  1.00  0.00    +0.026 A 
ATOM     16  C   UNL     1       3.783   2.026   4.845  1.00  0.00    +0.017 A 
ATOM     17  C   UNL     1       2.924   0.042   3.760  1.00  0.00    +0.043 A 
ATOM     18  C   UNL     1       2.863   2.799   4.140  1.00  0.00    +0.003 A 
ATOM     19  C   UNL     1       1.972   2.190   3.251  1.00  0.00    +0.026 A 
ATOM     20  C   UNL     1       5.576  -0.821   5.949  1.00  0.00    +0.010 C 
ENDBRANCH  11  13
ENDBRANCH   1  11
BRANCH   8  21
ATOM     21  O   UNL     1      -0.044  -2.530  -2.214  1.00  0.00    -0.487 OA
BRANCH  21  22
ATOM     22  C   UNL     1       1.282  -2.960  -1.915  1.00  0.00    +0.258 C 
BRANCH  22  23
ATOM     23  C   UNL     1       1.716  -3.966  -2.980  1.00  0.00    +0.201 C 
BRANCH  23  24
ATOM     24  O   UNL     1       3.043  -4.441  -2.751  1.00  0.00    -0.381 OA
ATOM     25  C   UNL     1       3.088  -5.540  -1.851  1.00  0.00    +0.195 C 
ENDBRANCH  23  24
ENDBRANCH  22  23
ENDBRANCH  21  22
ENDBRANCH   8  21
BRANCH   7  26
ATOM     26  O   UNL     1      -2.453  -1.782  -2.863  1.00  0.00    -0.487 OA
BRANCH  26  27
ATOM     27  C   UNL     1      -3.782  -1.460  -3.266  1.00  0.00    +0.258 C 
BRANCH  27  28
ATOM     28  C   UNL     1      -3.807  -0.226  -4.169  1.00  0.00    +0.201 C 
BRANCH  28  29
ATOM     29  O   UNL     1      -5.133   0.100  -4.587  1.00  0.00    -0.381 OA
ATOM     30  C   UNL     1      -5.837   0.883  -3.633  1.00  0.00    +0.195 C 
ENDBRANCH  28  29
ENDBRANCH  27  28
ENDBRANCH  26  27
ENDBRANCH   7  26
TORSDOF 10
