REMARK SMILES COc1cc2c(Nc3ccc(F)c(Cl)c3)ncnc2cc1OCCCN1CCOCC1
REMARK SMILES IDX 22 1 21 2 3 3 4 4 5 5 20 6 6 7 19 8 16 9 18 10 17 11 2 12
REMARK SMILES IDX 1 13 7 14 8 16 9 17 15 18 10 19 13 20 11 21 14 22 12 23
REMARK SMILES IDX 23 24 24 25 25 26 26 27 27 28 31 29 28 30 30 31 29 32
REMARK H PARENT 7 15
ROOT
ATOM      1  O   UNL     1      -1.283  -1.123  -0.888  1.00  0.00    -0.490 OA
ENDROOT
BRANCH   1   2
ATOM      2  C   UNL     1      -0.471  -0.895   0.194  1.00  0.00    +0.163 A 
ATOM      3  C   UNL     1       0.843  -1.367   0.225  1.00  0.00    +0.161 A 
ATOM      4  C   UNL     1       1.592  -1.143   1.379  1.00  0.00    +0.064 A 
ATOM      5  C   UNL     1       1.032  -0.469   2.501  1.00  0.00    +0.047 A 
ATOM      6  C   UNL     1      -1.028  -0.240   1.294  1.00  0.00    +0.079 A 
ATOM      7  C   UNL     1       1.712  -0.206   3.708  1.00  0.00    +0.141 A 
ATOM      8  C   UNL     1      -0.290  -0.007   2.443  1.00  0.00    +0.080 A 
ATOM      9  N   UNL     1       1.138   0.471   4.718  1.00  0.00    -0.219 NA
ATOM     10  N   UNL     1      -0.870   0.651   3.450  1.00  0.00    -0.236 NA
ATOM     11  C   UNL     1      -0.125   0.866   4.538  1.00  0.00    +0.224 A 
BRANCH   3  12
ATOM     12  O   UNL     1       1.287  -2.014  -0.895  1.00  0.00    -0.493 OA
ATOM     13  C   UNL     1       2.621  -2.505  -0.888  1.00  0.00    +0.278 C 
ENDBRANCH   3  12
BRANCH   7  14
ATOM     14  N   UNL     1       3.034  -0.705   3.872  1.00  0.00    -0.340 N 
ATOM     15  H   UNL     1       3.009  -1.712   3.733  1.00  0.00    +0.168 HD
BRANCH  14  16
ATOM     16  C   UNL     1       3.984  -0.341   4.855  1.00  0.00    +0.041 A 
ATOM     17  C   UNL     1       4.987  -1.262   5.205  1.00  0.00    +0.029 A 
ATOM     18  C   UNL     1       4.048   0.950   5.399  1.00  0.00    +0.049 A 
ATOM     19  C   UNL     1       5.987  -0.923   6.120  1.00  0.00    +0.043 A 
ATOM     20  C   UNL     1       5.047   1.291   6.314  1.00  0.00    +0.078 A 
ATOM     21  C   UNL     1       6.009   0.352   6.673  1.00  0.00    +0.141 A 
ATOM     22 Cl   UNL     1       5.090   2.882   6.972  1.00  0.00    -0.081 Cl
ATOM     23  F   UNL     1       6.982   0.659   7.544  1.00  0.00    -0.205 F 
ENDBRANCH  14  16
ENDBRANCH   7  14
ENDBRANCH   1   2
BRANCH   1  24
ATOM     24  C   UNL     1      -1.085  -0.111  -1.884  1.00  0.00    +0.231 C 
BRANCH  24  25
ATOM     25  C   UNL     1      -1.986  -0.414  -3.081  1.00  0.00    +0.057 C 
BRANCH  25  26
ATOM     26  C   UNL     1      -3.474  -0.337  -2.703  1.00  0.00    +0.088 C 
BRANCH  26  27
ATOM     27  N   UNL     1      -4.432  -0.614  -3.778  1.00  0.00    -0.299 NA
ATOM     28  C   UNL     1      -4.476   0.411  -4.831  1.00  0.00    +0.113 C 
ATOM     29  C   UNL     1      -4.359  -1.976  -4.332  1.00  0.00    +0.113 C 
ATOM     30  C   UNL     1      -5.250  -0.097  -6.058  1.00  0.00    +0.175 C 
ATOM     31  C   UNL     1      -3.845  -2.018  -5.781  1.00  0.00    +0.175 C 
ATOM     32  O   UNL     1      -4.620  -1.221  -6.688  1.00  0.00    -0.379 OA
ENDBRANCH  26  27
ENDBRANCH  25  26
ENDBRANCH  24  25
ENDBRANCH   1  24
TORSDOF 8
