REMARK SMILES Cc1ccc(NC(=O)c2ccc(CN3CCN(C)CC3)cc2)cc1Nc1nccc(-c2cccnc2)n1
REMARK SMILES IDX 6 1 7 2 8 3 5 5 2 6 3 7 24 8 4 9 23 10 1 11 25 12 26 14
REMARK SMILES IDX 27 15 37 16 28 17 30 18 29 19 31 20 32 21 36 22 33 23 35 24
REMARK SMILES IDX 34 25 9 26 10 27 22 28 11 29 21 30 12 31 13 32 14 33 15 34
REMARK SMILES IDX 20 35 16 36 19 37 17 38 18 39
REMARK H PARENT 6 4 25 13
ROOT
ATOM      1  N   UNL     1       0.825   0.033   2.305  1.00  0.00    -0.322 N 
ATOM      2  C   UNL     1       2.101   0.499   2.566  1.00  0.00    +0.255 C 
ATOM      3  O   UNL     1       2.693   0.468   3.638  1.00  0.00    -0.269 OA
ATOM      4  H   UNL     1       0.534   0.008   1.336  1.00  0.00    +0.170 HD
ENDROOT
BRANCH   1   5
ATOM      5  C   UNL     1      -0.099  -0.503   3.227  1.00  0.00    +0.043 A 
ATOM      6  C   UNL     1      -2.071  -1.587   4.920  1.00  0.00    -0.027 A 
ATOM      7  C   UNL     1      -0.859  -1.099   5.437  1.00  0.00    +0.008 A 
ATOM      8  C   UNL     1      -2.311  -1.541   3.527  1.00  0.00    +0.046 A 
ATOM      9  C   UNL     1       0.117  -0.562   4.598  1.00  0.00    +0.026 A 
ATOM     10  C   UNL     1      -1.311  -0.988   2.709  1.00  0.00    +0.052 A 
ATOM     11  C   UNL     1      -3.083  -2.148   5.884  1.00  0.00    +0.046 C 
BRANCH   8  12
ATOM     12  N   UNL     1      -3.526  -2.018   3.012  1.00  0.00    -0.324 N 
ATOM     13  H   UNL     1      -4.154  -2.470   3.658  1.00  0.00    +0.170 HD
BRANCH  12  14
ATOM     14  C   UNL     1      -4.100  -2.072   1.745  1.00  0.00    +0.227 A 
ATOM     15  N   UNL     1      -3.511  -1.543   0.665  1.00  0.00    -0.221 NA
ATOM     16  N   UNL     1      -5.292  -2.690   1.699  1.00  0.00    -0.213 NA
ATOM     17  C   UNL     1      -4.161  -1.649  -0.505  1.00  0.00    +0.117 A 
ATOM     18  C   UNL     1      -5.934  -2.776   0.511  1.00  0.00    +0.077 A 
ATOM     19  C   UNL     1      -5.382  -2.259  -0.643  1.00  0.00    +0.049 A 
BRANCH  18  20
ATOM     20  C   UNL     1      -7.236  -3.466   0.542  1.00  0.00    +0.019 A 
ATOM     21  C   UNL     1      -7.507  -4.488   1.466  1.00  0.00    +0.013 A 
ATOM     22  C   UNL     1      -8.281  -3.151  -0.329  1.00  0.00    +0.121 A 
ATOM     23  C   UNL     1      -8.743  -5.133   1.475  1.00  0.00    +0.021 A 
ATOM     24  N   UNL     1      -9.493  -3.761  -0.353  1.00  0.00    -0.264 NA
ATOM     25  C   UNL     1      -9.695  -4.739   0.553  1.00  0.00    +0.111 A 
ENDBRANCH  18  20
ENDBRANCH  12  14
ENDBRANCH   8  12
ENDBRANCH   1   5
BRANCH   2  26
ATOM     26  C   UNL     1       2.812   1.058   1.382  1.00  0.00    +0.040 A 
ATOM     27  C   UNL     1       2.142   1.813   0.411  1.00  0.00    +0.014 A 
ATOM     28  C   UNL     1       4.188   0.841   1.265  1.00  0.00    +0.014 A 
ATOM     29  C   UNL     1       2.843   2.324  -0.685  1.00  0.00    +0.006 A 
ATOM     30  C   UNL     1       4.886   1.351   0.168  1.00  0.00    +0.006 A 
ATOM     31  C   UNL     1       4.220   2.093  -0.820  1.00  0.00    -0.034 A 
BRANCH  31  32
ATOM     32  C   UNL     1       4.988   2.656  -2.000  1.00  0.00    +0.120 C 
BRANCH  32  33
ATOM     33  N   UNL     1       5.635   1.621  -2.819  1.00  0.00    -0.297 NA
ATOM     34  C   UNL     1       6.547   2.211  -3.822  1.00  0.00    +0.100 C 
ATOM     35  C   UNL     1       4.642   0.729  -3.460  1.00  0.00    +0.100 C 
ATOM     36  C   UNL     1       5.946   2.308  -5.242  1.00  0.00    +0.099 C 
ATOM     37  C   UNL     1       5.172   0.048  -4.741  1.00  0.00    +0.099 C 
ATOM     38  N   UNL     1       5.579   0.992  -5.801  1.00  0.00    -0.304 NA
ATOM     39  C   UNL     1       4.559   1.134  -6.834  1.00  0.00    +0.105 C 
ENDBRANCH  32  33
ENDBRANCH  31  32
ENDBRANCH   2  26
TORSDOF 7
